ITEM: TIMESTEP
12390000
ITEM: NUMBER OF ATOMS
110400
ITEM: BOX BOUNDS pp pp pp
-9.2912318999999997e+01 1.0360768500000000e+02
-9.4223163000000000e+01 1.1000722900000000e+02
-1.6165759000000001e+01 1.1686024200000000e+02
ITEM: ATOMS id mol type x y z
1 1 1 -91.0761 -90.0508 -2.98015
2 1 1 -88.9918 -90.584 -6.11908
3 1 1 -90.4639 -89.1163 -7.09441
4 1 1 -92.6775 -90.0243 -7.96999
5 1 1 -87.5463 -87.7731 -5.79109
6 1 1 -91.1132 -88.804 -2.85612
7 1 2 -89.5904 -91.2351 -4.79357
8 1 2 -88.7738 -89.2342 -6.7545
9 1 2 -91.258 -89.5206 -0.502394
10 1 1 -88.7471 -85.75 -1.9899
11 1 1 -91.5224 -86.6094 -5.67919
12 1 1 103.565 -85.2767 -6.79443
13 1 1 -90.2394 -85.941 -7.23924
14 1 1 -90.0658 -83.965 -5.56709
15 1 1 -88.7953 -85.0291 -2.02362
16 1 2 -87.3754 -86.8572 -3.86387
17 1 2 -91.2702 -85.3596 -6.36292
18 1 2 -88.7947 -85.3989 0.572614
19 2 1 -92.011 -92.2206 -5.55579
20 2 1 -90.6241 -92.426 -2.81213
21 2 1 -89.9908 -91.6675 -0.955806
22 2 1 -92.5056 -91.4358 -1.8475
23 2 1 -88.8268 -89.8943 -2.33255
24 2 1 -92.3181 -89.8422 -4.8219
25 2 2 -90.9041 -93.3751 -4.28709
26 2 2 -89.2457 -91.2528 -1.94431
27 2 2 -91.872 -90.2817 -6.42584
28 2 1 -89.7044 -87.9409 -4.7405
29 2 1 103.232 -88.1077 -2.35699
30 2 1 -92.775 -87.4282 -0.487563
31 2 1 -90.4157 -87.2109 -1.16582
32 2 1 -91.1812 -86.1297 -2.12067
33 2 1 -89.8908 -85.7542 -4.07993
34 2 2 -88.6427 -89.0376 -3.52059
35 2 2 -92.001 -87.1368 -1.46641
36 2 2 -89.4956 -86.126 -5.75558
37 3 1 -91.0829 -93.6154 -0.788018
38 3 1 -90.671 -92.7992 0.964383
39 3 1 -90.9101 -91.6372 2.85351
40 3 1 -92.8296 -92.0669 3.04341
41 3 1 -89.483 -91.0624 1.17993
42 3 1 -92.574 -91.4102 0.508886
43 3 2 -90.8754 109.72 0.142427
44 3 2 -89.6791 -91.8148 2.1356
45 3 2 -91.4765 -92.1352 -0.741892
46 3 1 -88.8545 -89.3512 -0.0521935
47 3 1 103.036 -88.4063 1.74336
48 3 1 103.188 -87.0757 4.06649
49 3 1 -90.6021 -87.8835 3.91779
50 3 1 -92.1246 -87.1428 1.71152
51 3 1 -90.2818 -87.3703 1.14823
52 3 2 -88.7172 -90.0998 0.902344
53 3 2 -92.3969 -87.6335 2.96879
54 3 2 -89.2242 -87.924 -0.0727341
55 4 1 -89.8285 -92.2719 4.44555
56 4 1 -88.1756 -92.3507 6.83869
57 4 1 -89.7333 -90.3268 9.3853
58 4 1 -92.618 -91.1509 9.91534
59 4 1 -87.0722 -90.0671 7.58914
60 4 1 -91.4616 -90.006 4.75726
61 4 2 -89.0555 -93.36 5.50435
62 4 2 -88.2856 -90.9997 8.47629
63 4 2 -91.4174 -91.4144 4.08283
64 4 1 -87.5728 -88.1914 5.31601
65 4 1 -90.8548 -88.1914 7.49712
66 4 1 -92.5076 -85.7067 9.72819
67 4 1 -90.3954 -86.7669 10.6359
68 4 1 -90.0296 -86.0359 7.69439
69 4 1 -89.1008 -85.7078 5.59096
70 4 2 -86.7282 -89.2054 6.29749
71 4 2 -91.0347 -86.6171 9.00905
72 4 2 -89.0965 -87.2753 4.99762
73 5 1 -91.5179 -91.9565 8.57077
74 5 1 -89.5629 -90.6599 6.03976
75 5 1 -90.7368 -89.3727 2.10406
76 5 1 -91.6864 -89.7453 2.0088
77 5 1 -89.2154 -89.4308 6.30291
78 5 1 -92.4647 -88.8691 9.21455
79 5 2 -90.6601 -92.2168 7.19361
80 5 2 -89.0065 -89.8965 4.01031
81 5 2 -91.4986 -90.4812 9.24254
82 5 1 -89.2757 -87.6291 9.30857
83 5 1 -92.1685 -86.4403 6.50492
84 5 1 103.555 -85.165 2.71733
85 5 1 -89.5715 -85.7927 2.99783
86 5 1 -91.8787 -84.9293 6.58365
87 5 1 -90.207 -84.5417 9.71778
88 5 2 -88.4143 -87.9857 8.00605
89 5 2 -91.5113 -85.6453 4.59996
90 5 2 -89.2174 -86.1477 9.87417
91 6 1 -91.0511 -81.7932 -2.06212
92 6 1 -88.734 -82.7868 -5.00463
93 6 1 -90.3452 -81.4745 -6.18996
94 6 1 -92.6951 -82.5246 -6.81755
95 6 1 -87.3154 -80.1378 -5.02133
96 6 1 -91.0216 -81.144 -2.20707
97 6 2 -89.5428 -83.1832 -3.71856
98 6 2 -88.5986 -81.553 -5.77277
99 6 2 -91.0935 -81.2948 0.474656
100 6 1 -88.281 -77.7396 -1.81479
101 6 1 -90.9841 -79.0246 -5.34985
102 6 1 -92.6105 -77.654 -6.65364
103 6 1 -89.8696 -78.5415 -6.93865
104 6 1 -89.8412 -76.15 -5.72511
105 6 1 -88.4269 -76.7789 -2.00186
106 6 2 -86.8958 -79.1545 -3.26237
107 6 2 -90.9265 -77.7631 -6.25982
108 6 2 -88.263 -77.0329 0.609252
109 7 1 -92.236 -84.0333 -4.28399
110 7 1 -90.7369 -83.9558 -1.58515
111 7 1 -90.152 -83.4907 -0.0257139
112 7 1 -92.8388 -83.1609 -0.996102
113 7 1 -88.8884 -81.54 -1.21996
114 7 1 -92.4118 -81.9598 -3.92322
115 7 2 -91.2092 -84.9325 -2.98534
116 7 2 -89.2101 -82.9285 -0.931631
117 7 2 -91.9496 -82.3882 -5.38962
118 7 1 -89.3579 -79.9691 -3.83235
119 7 1 -92.887 -79.9567 -1.63587
120 7 1 -92.3315 -79.2501 -0.0563556
121 7 1 -90.25 -79.2636 -1.0725
122 7 1 -90.7005 -78.1408 -2.19334
123 7 1 -89.4186 -77.7746 -3.98108
124 7 2 -88.4806 -80.9512 -2.42275
125 7 2 -91.4629 -78.9988 -1.21944
126 7 2 -89.1152 -78.4473 -5.37795
127 8 1 -91.3248 -85.3493 0.180436
128 8 1 -90.8521 -84.2964 2.05859
129 8 1 -90.7828 -83.442 3.67406
130 8 1 103.462 -83.6191 4.50628
131 8 1 -88.892 -82.2567 1.91537
132 8 1 -92.6953 -83.1434 1.19963
133 8 2 -91.2056 -86.1713 1.31359
134 8 2 -89.5016 -83.3583 2.98576
135 8 2 -91.6526 -83.8541 0.00568689
136 8 1 -89.4991 -79.5534 1.36785
137 8 1 103.269 -80.134 1.95682
138 8 1 103.514 -79.1714 3.18096
139 8 1 -90.2469 -79.3414 3.97074
140 8 1 -91.1079 -77.8901 1.47869
141 8 1 -90.6593 -77.5024 0.144374
142 8 2 -88.6915 -80.5547 1.66613
143 8 2 -91.7669 -79.0595 2.617
144 8 2 -89.7465 -79.0186 0.0638022
145 9 1 -89.9937 -83.8792 5.61989
146 9 1 -88.5007 -83.8371 8.22573
147 9 1 -90.1835 -81.3129 10.3147
148 9 1 -92.0463 -82.248 8.66287
149 9 1 -87.7551 -81.7862 7.98893
150 9 1 -91.6017 -81.6103 5.59411
151 9 2 -89.3444 -84.88 6.80183
152 9 2 -88.6812 -82.2128 9.5269
153 9 2 -91.4936 -82.9806 5.05077
154 9 1 -87.2567 -79.8283 5.63897
155 9 1 -90.8844 -79.7483 8.25115
156 9 1 -92.2471 -77.1269 10.5169
157 9 1 -90.1434 -77.8638 10.9912
158 9 1 -90.4841 -77.214 7.91988
159 9 1 -88.9184 -77.3726 5.51385
160 9 2 -86.7726 -80.8066 7.0757
161 9 2 -90.9349 -78.0132 9.47947
162 9 2 -88.6387 -78.7922 4.80709
163 10 1 -92.1016 -83.0289 9.85384
164 10 1 -89.7387 -82.1003 6.98538
165 10 1 -90.7424 -81.2831 2.87945
166 10 1 -91.9319 -81.5672 3.016
167 10 1 -89.3286 -80.3233 6.65936
168 10 1 103.534 -79.8252 9.41737
169 10 2 -91.1017 -83.5377 8.24565
170 10 2 -89.1338 -81.4384 4.87426
171 10 2 -91.8496 -81.4923 9.84166
172 10 1 -89.0388 -78.4208 9.39897
173 10 1 -91.5507 -77.9756 6.06331
174 10 1 103.533 -76.9379 2.23202
175 10 1 -89.2609 -77.3719 2.80785
176 10 1 -91.5041 -75.9022 6.17344
177 10 1 -90.3142 -75.405 9.37939
178 10 2 -88.3861 -79.0164 8.08301
179 10 2 -91.225 -77.0249 4.19937
180 10 2 -89.2113 -77.065 10.168
181 11 1 -90.8577 -73.5086 -2.51714
182 11 1 -88.5952 -74.7281 -5.30137
183 11 1 -90.1738 -73.2794 -6.64978
184 11 1 -92.3387 -74.158 -7.4608
185 11 1 -87.2524 -71.9141 -5.56466
186 11 1 -90.8338 -72.1498 -2.67826
187 11 2 -89.4251 -75.0979 -3.97476
188 11 2 -88.4956 -73.4247 -6.22118
189 11 2 -90.7082 -72.6296 -0.242686
190 11 1 -88.2804 -68.9504 -2.07572
191 11 1 -90.8355 -70.1003 -5.61412
192 11 1 -92.4919 -68.9173 -6.95604
193 11 1 -89.9383 -69.846 -7.30789
194 11 1 -89.6378 -67.4731 -5.82346
195 11 1 -88.2405 -68.0853 -2.131
196 11 2 -87.0528 -70.7447 -3.73342
197 11 2 -90.8529 -68.9672 -6.50289
198 11 2 -88.2475 -68.3203 0.474102
199 12 1 -91.8449 -76.0351 -4.58595
200 12 1 -90.8378 -75.9868 -1.89645
201 12 1 -90.9201 -75.1338 -0.0421763
202 12 1 -92.5284 -74.5632 -1.12538
203 12 1 -88.6138 -74.0126 -1.87062
204 12 1 -91.9309 -73.2578 -4.52855
205 12 2 -90.806 -77.0643 -3.13075
206 12 2 -89.7594 -75.0355 -1.06985
207 12 2 -91.6054 -74.2296 -5.88151
208 12 1 -89.3349 -71.6898 -4.52058
209 12 1 103.023 -71.3875 -2.7799
210 12 1 102.829 -71.0092 -0.530307
211 12 1 -91.0435 -70.3121 -1.35602
212 12 1 -91.0536 -69.883 -2.14072
213 12 1 -89.2553 -69.0949 -4.16514
214 12 2 -88.4598 -72.7392 -2.99127
215 12 2 -92.5983 -70.9319 -1.61342
216 12 2 -89.0851 -69.9977 -5.81969
217 13 1 -91.8112 -75.2056 1.40335
218 13 1 -89.4927 -75.1975 1.74555
219 13 1 -90.187 -74.8403 3.27738
220 13 1 -92.5406 -74.9702 3.67476
221 13 1 -88.6017 -73.4984 1.58246
222 13 1 103.39 -73.1893 0.213439
223 13 2 -90.8325 -76.253 1.28869
224 13 2 -88.9547 -74.602 2.82264
225 13 2 -92.3164 -74.5457 0.239887
226 13 1 -89.308 -70.7874 0.959107
227 13 1 -91.9364 -70.9271 1.21993
228 13 1 -92.6172 -70.5807 2.99759
229 13 1 -89.8311 -70.6096 3.61359
230 13 1 -90.9847 -69.2217 1.2362
231 13 1 -90.5693 -68.7218 -0.13476
232 13 2 -88.5067 -71.8277 1.33507
233 13 2 -91.357 -70.3175 2.38075
234 13 2 -89.9329 -70.1341 -0.351469
235 14 1 -89.4371 -75.5932 5.26182
236 14 1 -88.2461 -75.5055 8.32994
237 14 1 -89.3572 -72.8959 10.3356
238 14 1 -92.2034 -73.5969 10.3818
239 14 1 -87.8483 -72.5809 7.86944
240 14 1 -91.0929 -72.873 5.02068
241 14 2 -89.1383 -76.631 6.84324
242 14 2 -88.2251 -73.5746 8.99662
243 14 2 -90.8588 -74.387 4.41331
244 14 1 -86.5669 -71.3694 5.25427
245 14 1 -90.1883 -70.996 7.90314
246 14 1 -91.7033 -68.4185 9.58607
247 14 1 -89.2478 -69.3503 10.1103
248 14 1 -89.4899 -68.8658 7.14894
249 14 1 -88.1582 -68.4899 4.84794
250 14 2 -86.4046 -72.2949 6.85365
251 14 2 -90.2076 -69.3356 8.74179
252 14 2 -87.9446 -70.0155 4.29195
253 15 1 -90.2154 -73.3088 8.51522
254 15 1 -89.0368 -73.6037 6.17071
255 15 1 -90.5023 -72.6141 2.46024
256 15 1 -91.5161 -72.9699 2.38713
257 15 1 -88.6816 -71.1851 6.23657
258 15 1 -92.0583 -71.1704 9.30781
259 15 2 -90.4395 -74.4917 7.47778
260 15 2 -88.6711 -72.5788 4.48146
261 15 2 -91.0133 -72.7417 9.71571
262 15 1 -87.247 -68.6281 8.34308
263 15 1 -91.577 -69.0751 6.25939
264 15 1 -92.7896 -68.3414 2.24399
265 15 1 -89.1281 -68.7299 2.51132
266 15 1 -91.169 -67.5543 6.15074
267 15 1 -89.2596 -67.1123 9.18716
268 15 2 -87.2364 -69.9241 7.48782
269 15 2 -91.022 -68.465 4.25347
270 15 2 -88.0467 -68.4553 9.57393
271 16 1 -90.7559 -64.6729 -2.2308
272 16 1 -89.5284 -65.4129 -5.33306
273 16 1 -90.2169 -64.8016 -7.02119
274 16 1 -92.2108 -65.5053 -7.43916
275 16 1 -87.6077 -63.0836 -6.04529
276 16 1 -90.8015 -63.7203 -2.34044
277 16 2 -89.407 -66.3914 -4.00123
278 16 2 -88.6425 -64.7196 -6.48072
279 16 2 -90.8352 -63.9792 0.309768
280 16 1 -88.4583 -60.4915 -2.49402
281 16 1 -92.0339 -60.8756 -5.37197
282 16 1 -92.679 -60.4805 -7.1486
283 16 1 -90.2659 -61.4025 -7.19119
284 16 1 -90.0848 -58.8667 -6.13903
285 16 1 -88.4224 -59.608 -2.64602
286 16 2 -87.0547 -62.0981 -4.32718
287 16 2 -91.1713 -60.3658 -6.52039
288 16 2 -88.5302 -59.7888 -0.00311653
289 17 1 -91.6838 -67.4161 -4.59035
290 17 1 -90.4223 -67.2533 -1.87525
291 17 1 -90.3987 -66.3657 -0.312876
292 17 1 -92.4941 -66.2858 -1.85072
293 17 1 -88.4404 -65.0131 -2.13426
294 17 1 -91.7672 -64.7284 -4.37971
295 17 2 -90.6356 -68.4987 -3.12093
296 17 2 -89.2212 -66.1706 -1.25996
297 17 2 -91.4626 -65.5782 -5.91227
298 17 1 -89.5975 -62.9673 -4.66186
299 17 1 103.456 -63.0954 -2.10032
300 17 1 103.326 -62.161 -0.566424
301 17 1 -90.138 -61.77 -1.11798
302 17 1 -90.9484 -60.7543 -2.13027
303 17 1 -89.7369 -60.5195 -4.40932
304 17 2 -88.5234 -63.9618 -3.3626
305 17 2 -91.9304 -61.9074 -1.35068
306 17 2 -89.4429 -61.2839 -5.86854
307 18 1 -91.7221 -66.6382 0.756558
308 18 1 -90.3529 -66.7982 2.21639
309 18 1 -90.3122 -66.1318 3.31084
310 18 1 -92.4343 -66.4566 3.55892
311 18 1 -88.8821 -65.7997 1.43729
312 18 1 103.415 -64.8062 -0.0984039
313 18 2 -90.8321 -67.602 1.02872
314 18 2 -89.023 -66.2212 2.72461
315 18 2 -91.9904 -66.0804 -0.546204
316 18 1 -88.4253 -63.9268 -0.0932381
317 18 1 -92.809 -62.3658 2.03546
318 18 1 -92.1678 -62.1242 3.83683
319 18 1 -90.0043 -62.0504 3.93968
320 18 1 -91.5761 -61.5434 1.31086
321 18 1 -89.7647 -61.7209 1.02499
322 18 2 -88.2279 -64.7899 1.05421
323 18 2 -91.4641 -61.9329 2.64681
324 18 2 -88.8364 -62.4301 -0.267416
325 19 1 -89.4473 -66.6385 4.9151
326 19 1 -87.6708 -66.4594 7.41461
327 19 1 -89.3443 -64.0989 9.47297
328 19 1 -92.1425 -65.1245 10.3181
329 19 1 -86.9025 -64.4406 7.25097
330 19 1 -91.0252 -64.2424 4.96986
331 19 2 -88.5864 -67.7113 6.09007
332 19 2 -87.8054 -64.9165 8.74244
333 19 2 -90.9042 -65.7303 4.43445
334 19 1 -86.9716 -62.3614 5.07758
335 19 1 -90.4649 -62.4818 7.6933
336 19 1 -92.1863 -60.3534 9.98434
337 19 1 -89.7202 -60.8262 10.5792
338 19 1 -90.2795 -59.9138 7.71589
339 19 1 -89.2642 -60.8843 5.72937
340 19 2 -86.2172 -63.3528 6.33179
341 19 2 -90.6656 -60.9098 9.05333
342 19 2 -88.5633 -61.5309 4.61778
343 20 1 -90.9734 -65.9362 8.92804
344 20 1 -89.0361 -64.8696 6.27982
345 20 1 -89.9955 -63.8559 2.47934
346 20 1 -91.7396 -64.4936 2.34056
347 20 1 -88.7427 -63.3624 6.30189
348 20 1 -92.2057 -63.0937 9.16032
349 20 2 -90.1977 -66.2978 7.62566
350 20 2 -88.4549 -64.19 4.26724
351 20 2 -91.0708 -64.5035 9.44332
352 20 1 -88.7345 -61.4328 8.99368
353 20 1 -91.7854 -60.8224 6.32048
354 20 1 -92.8 -59.8643 2.48753
355 20 1 -89.3939 -60.0332 2.77499
356 20 1 -91.3948 -58.3631 5.99983
357 20 1 -89.7165 -58.4044 9.20335
358 20 2 -87.9047 -61.9351 7.75431
359 20 2 -91.4016 -59.8308 4.40692
360 20 2 -88.6494 -60.1327 9.72441
361 21 1 -90.837 -56.4947 -2.89188
362 21 1 -88.7781 -57.3652 -5.79209
363 21 1 -90.3965 -56.0464 -6.97554
364 21 1 -92.6273 -56.7992 -7.43276
365 21 1 -87.762 -54.3137 -6.29146
366 21 1 -90.9145 -54.7317 -2.85965
367 21 2 -89.3936 -57.8795 -4.43008
368 21 2 -88.7277 -56.0974 -6.67418
369 21 2 -90.9182 -55.5575 -0.695047
370 21 1 -88.5294 -51.7724 -2.4518
371 21 1 -91.5323 -52.8084 -5.65067
372 21 1 103.354 -51.4596 -6.65577
373 21 1 -90.5416 -52.3153 -7.41782
374 21 1 -90.2857 -50.1227 -5.88792
375 21 1 -88.6165 -50.9211 -2.4759
376 21 2 -87.2333 -53.3174 -4.48542
377 21 2 -91.4357 -51.565 -6.45125
378 21 2 -88.5732 -51.2268 0.110335
379 22 1 -91.8976 -58.4982 -4.55799
380 22 1 -90.3198 -58.5268 -2.03083
381 22 1 -89.9428 -57.82 -0.741067
382 22 1 -92.4947 -57.7 -1.52686
383 22 1 -88.5492 -56.1465 -2.35113
384 22 1 -92.1295 -55.8071 -4.66465
385 22 2 -90.9273 -59.56 -3.27066
386 22 2 -88.9448 -57.4936 -1.70392
387 22 2 -91.7483 -56.844 -5.96834
388 22 1 -89.7441 -54.3622 -4.93788
389 22 1 103.474 -54.0931 -2.17106
390 22 1 -92.4053 -53.3806 -0.397521
391 22 1 -90.1181 -53.1299 -1.20419
392 22 1 -91.0215 -51.8709 -1.98734
393 22 1 -89.854 -51.8875 -4.33842
394 22 2 -88.5968 -55.3467 -3.68786
395 22 2 -91.6252 -53.0304 -1.35833
396 22 2 -89.657 -52.5368 -5.95676
397 23 1 -90.999 -59.693 -0.113393
398 23 1 -90.65 -58.8503 1.4072
399 23 1 -90.4143 -57.6501 2.81589
400 23 1 -92.1772 -57.8072 3.16468
401 23 1 -88.9522 -57.2156 1.16764
402 23 1 -92.2742 -57.3245 0.699098
403 23 2 -90.843 -60.55 0.963929
404 23 2 -89.3159 -57.703 2.23834
405 23 2 -91.367 -58.1932 -0.454234
406 23 1 -88.5491 -55.2726 -0.118528
407 23 1 103.533 -54.3597 1.75683
408 23 1 -92.3744 -53.3675 4.08055
409 23 1 -90.0459 -53.6698 3.69045
410 23 1 -91.742 -52.8174 1.70897
411 23 1 -89.9815 -53.1752 1.03835
412 23 2 -88.3256 -56.1766 0.851901
413 23 2 -91.7722 -53.4513 2.78695
414 23 2 -88.9876 -53.8435 -0.203712
415 24 1 -89.2625 -58.6827 4.98357
416 24 1 -87.8259 -58.6243 7.86007
417 24 1 -89.0647 -56.0895 10.2214
418 24 1 -91.5838 -57.1695 10.2691
419 24 1 -87.4584 -55.9773 7.52272
420 24 1 -90.7597 -55.792 4.82392
421 24 2 -89.0991 -59.641 6.49926
422 24 2 -87.767 -56.8231 9.11071
423 24 2 -90.6206 -57.2924 3.97708
424 24 1 -86.7915 -54.2489 4.98344
425 24 1 -90.1502 -53.9229 7.68285
426 24 1 -91.7441 -51.887 10.069
427 24 1 -89.2106 -52.8024 10.2822
428 24 1 -89.6204 -51.8883 7.61125
429 24 1 -88.4934 -51.4889 5.17613
430 24 2 -86.2863 -55.2467 6.40361
431 24 2 -90.2727 -52.5155 9.03016
432 24 2 -88.332 -52.9519 4.43707
433 25 1 -89.8201 -56.2079 8.29016
434 25 1 -88.605 -56.6136 5.59403
435 25 1 -90.3494 -55.3468 1.83317
436 25 1 -91.117 -55.6526 1.94075
437 25 1 -88.7244 -54.7441 5.95017
438 25 1 -91.8236 -54.6457 9.39304
439 25 2 -89.9673 -57.3129 7.22571
440 25 2 -88.4713 -55.5871 3.70558
441 25 2 -90.6296 -56.0369 9.5865
442 25 1 -87.3789 -51.9156 8.33113
443 25 1 -91.642 -52.2111 6.56584
444 25 1 -92.722 -51.0744 2.75967
445 25 1 -89.0197 -51.5279 2.57621
446 25 1 -91.3812 -50.7686 6.6675
447 25 1 -89.3294 -50.2994 9.76927
448 25 2 -87.5376 -53.1717 7.30406
449 25 2 -91.0287 -51.4496 4.50896
450 25 2 -88.1244 -51.7619 9.68765
451 26 1 -90.9272 -47.3882 -1.96782
452 26 1 -89.099 -48.8409 -5.56408
453 26 1 -90.8324 -47.5686 -6.57807
454 26 1 103.456 -48.4719 -6.92151
455 26 1 -87.9164 -46.1334 -5.98284
456 26 1 -91.0192 -46.9274 -1.95599
457 26 2 -89.6782 -49.1827 -4.14433
458 26 2 -89.1048 -47.6373 -6.44218
459 26 2 -91.1154 -46.996 0.787232
460 26 1 -88.7952 -43.6421 -2.63894
461 26 1 -91.7236 -45.0692 -5.47781
462 26 1 103.261 -43.687 -6.6924
463 26 1 -90.6466 -44.594 -7.28885
464 26 1 -90.4105 -42.0858 -6.20629
465 26 1 -88.8573 -42.6172 -2.78181
466 26 2 -87.3372 -45.096 -4.30387
467 26 2 -91.5235 -43.749 -6.48056
468 26 2 -88.7276 -42.8412 -0.233057
469 27 1 -92.221 -50.2224 -4.3361
470 27 1 -91.0548 -49.9192 -2.07702
471 27 1 -90.3779 -49.2595 -0.206293
472 27 1 -92.8871 -49.0523 -0.863556
473 27 1 -88.6139 -48.2073 -2.0997
474 27 1 -92.288 -47.9812 -3.76666
475 27 2 -91.1749 -51.0283 -3.14821
476 27 2 -89.6951 -49.2361 -1.3015
477 27 2 -92.1729 -48.4662 -5.45637
478 27 1 -89.7972 -46.1393 -4.46167
479 27 1 103.59 -45.8976 -1.4394
480 27 1 -92.4178 -45.0423 -0.0281679
481 27 1 -90.2693 -44.8871 -1.32066
482 27 1 -91.3776 -43.3739 -2.0758
483 27 1 -90.164 -43.6043 -4.47324
484 27 2 -88.6664 -46.9571 -3.18494
485 27 2 -91.6421 -44.7576 -1.21032
486 27 2 -89.8186 -44.4666 -5.85525
487 28 1 -91.08 -50.9108 0.123677
488 28 1 -90.6699 -50.166 2.12005
489 28 1 -90.7163 -48.8416 3.75753
490 28 1 -92.8062 -49.5607 4.51066
491 28 1 -89.2802 -48.8857 1.74241
492 28 1 -92.5554 -49.0004 1.34426
493 28 2 -90.9159 -51.8347 1.25534
494 28 2 -89.5438 -49.2256 3.07548
495 28 2 -91.6585 -49.5295 -0.021645
496 28 1 -88.8532 -46.9919 -0.152679
497 28 1 103.21 -46.0689 2.00279
498 28 1 103.267 -45.0905 3.37471
499 28 1 -90.4214 -45.069 4.18866
500 28 1 -91.1756 -44.396 1.83654
501 28 1 -90.1677 -44.5893 0.882176
502 28 2 -88.5552 -47.8665 1.01245
503 28 2 -91.9567 -45.0784 2.80834
504 28 2 -89.1941 -45.4662 -0.349738
505 29 1 -89.719 -49.5632 5.48385
506 29 1 -88.0422 -49.5128 7.81711
507 29 1 -89.4137 -46.9236 10.1583
508 29 1 -91.557 -48.0111 8.89015
509 29 1 -87.3266 -47.3575 7.44286
510 29 1 -91.824 -48.2134 6.36442
511 29 2 -88.9265 -50.6207 6.54029
512 29 2 -88.0677 -47.8404 9.1233
513 29 2 -91.2874 -48.8301 5.13915
514 29 1 -87.2166 -45.3959 4.98255
515 29 1 -90.4969 -45.5495 8.16316
516 29 1 -91.6982 -42.8745 10.4409
517 29 1 -89.4388 -43.5397 10.7057
518 29 1 -90.158 -42.97 7.74064
519 29 1 -88.8973 -42.9782 5.07773
520 29 2 -86.4979 -46.3784 6.42585
521 29 2 -90.4223 -43.7512 9.33921
522 29 2 -88.7583 -44.4518 4.4247
523 30 1 -91.2825 -48.8523 10.055
524 30 1 -89.4829 -47.8292 6.84783
525 30 1 -90.1229 -46.7433 2.72786
526 30 1 -92.3073 -47.3798 3.44805
527 30 1 -89.1441 -46.0017 6.33646
528 30 1 -92.3997 -45.6251 9.68186
529 30 2 -90.5015 -49.369 8.35225
530 30 2 -88.9789 -47.1378 4.70538
531 30 2 -91.1686 -47.2603 9.96505
532 30 1 -88.6102 -44.1646 9.02125
533 30 1 -91.4287 -43.7877 6.01304
534 30 1 103.414 -42.8352 2.18534
535 30 1 -89.1348 -43.0006 2.35704
536 30 1 -91.523 -41.9194 6.12273
537 30 1 -89.8311 -41.1816 9.26349
538 30 2 -88.057 -44.6766 7.62923
539 30 2 -91.2908 -42.8485 4.06221
540 30 2 -88.5871 -42.7875 9.68088
541 31 1 -91.0263 -39.3444 -2.97916
542 31 1 -89.0915 -40.6907 -5.9795
543 31 1 -90.8685 -39.5245 -7.30341
544 31 1 103.299 -40.4966 -7.50067
545 31 1 -87.9437 -37.8644 -6.85871
546 31 1 -91.0271 -38.4387 -3.18187
547 31 2 -89.771 -40.9746 -4.53624
548 31 2 -89.059 -39.5083 -7.02488
549 31 2 -91.1179 -38.5345 -0.648417
550 31 1 -88.5843 -35.4107 -3.69064
551 31 1 -91.4517 -36.4879 -6.46844
552 31 1 103.362 -35.1348 -7.6784
553 31 1 -90.4905 -35.9815 -8.16568
554 31 1 -90.4223 -33.4096 -7.1276
555 31 1 -88.7152 -33.8511 -3.84939
556 31 2 -87.1804 -36.7697 -5.14455
557 31 2 -91.4712 -35.1359 -7.41858
558 31 2 -88.7953 -34.3873 -1.58948
559 32 1 -92.4582 -41.7997 -4.91093
560 32 1 -90.9643 -41.5987 -2.33627
561 32 1 -90.2686 -40.8332 -0.545565
562 32 1 -92.7891 -40.5238 -1.29747
563 32 1 -88.6504 -39.5171 -2.61896
564 32 1 -92.4985 -39.4643 -4.80425
565 32 2 -91.3658 -42.722 -3.56509
566 32 2 -89.4775 -40.6355 -1.70811
567 32 2 -92.277 -40.2728 -6.2286
568 32 1 -89.6783 -37.6429 -5.29239
569 32 1 103.534 -37.3732 -2.59844
570 32 1 -92.5262 -36.4937 -1.1933
571 32 1 -90.1415 -36.5604 -2.09576
572 32 1 -91.237 -34.9602 -3.10374
573 32 1 -89.9732 -34.9695 -5.48246
574 32 2 -88.6399 -38.5541 -3.93477
575 32 2 -91.617 -36.2867 -2.3172
576 32 2 -89.5975 -35.9487 -6.72075
577 33 1 -91.2682 -42.3864 -0.0222936
578 33 1 -90.9475 -41.4893 1.86958
579 33 1 -90.666 -39.7291 3.82813
580 33 1 -92.7634 -40.8556 3.51992
581 33 1 -89.2979 -40.4677 1.49778
582 33 1 -92.7654 -40.3815 0.689392
583 33 2 -91.0556 -43.0502 1.0346
584 33 2 -89.8338 -40.7029 2.87492
585 33 2 -91.695 -41.0994 -0.245555
586 33 1 -88.7029 -38.4861 -0.514003
587 33 1 103.27 -37.3689 1.46846
588 33 1 103.361 -36.1859 2.54808
589 33 1 -90.2906 -36.5372 3.08824
590 33 1 -91.5468 -36.1711 0.827836
591 33 1 -89.9505 -36.2017 0.214063
592 33 2 -88.4797 -39.4142 0.683333
593 33 2 -92.0542 -36.4706 2.04933
594 33 2 -88.975 -36.9466 -0.809656
595 34 1 -89.6963 -41.2832 5.10475
596 34 1 -88.0441 -41.0869 7.75112
597 34 1 -89.5014 -38.2016 9.67377
598 34 1 -92.1424 -38.8719 10.3224
599 34 1 -87.7239 -38.8372 7.18462
600 34 1 -91.8288 -39.5227 5.55891
601 34 2 -89.0624 -42.273 6.49737
602 34 2 -88.0992 -39.2102 8.84065
603 34 2 -91.294 -40.1824 4.44837
604 34 1 -87.0069 -37.0865 4.55008
605 34 1 -90.3728 -37.1021 7.2198
606 34 1 -91.1341 -34.2816 9.36154
607 34 1 -88.67 -34.7008 7.43152
608 34 1 -90.0199 -34.2125 6.51804
609 34 1 -88.6681 -34.2939 3.98546
610 34 2 -86.6713 -38.1084 6.02758
611 34 2 -90.1786 -35.0437 7.89076
612 34 2 -88.6621 -35.8005 3.58672
613 35 1 -91.1101 -39.616 8.72317
614 35 1 -89.1634 -39.1055 5.51882
615 35 1 -90.4173 -38.3579 1.6017
616 35 1 -91.5332 -38.8532 2.01236
617 35 1 -89.1178 -37.5071 5.27318
618 35 1 -92.181 -36.5532 8.6526
619 35 2 -90.4071 -40.2915 7.46008
620 35 2 -88.641 -38.4466 3.35438
621 35 2 -91.2086 -38.1989 9.40419
622 35 1 -88.9045 -35.5556 8.36517
623 35 1 -91.1585 -35.1144 4.83121
624 35 1 103.59 -34.0701 0.991442
625 35 1 -88.7951 -34.3535 0.986331
626 35 1 -91.1855 -32.9793 4.97549
627 35 1 -89.8111 -32.4581 8.01614
628 35 2 -88.1198 -36.0817 6.63865
629 35 2 -91.0322 -34.1752 2.88992
630 35 2 -88.6886 -34.0423 8.56249
631 36 1 -91.2389 -30.9689 -3.79541
632 36 1 -89.1813 -31.8286 -6.81765
633 36 1 -90.7555 -30.5321 -7.91407
634 36 1 103.359 -31.3062 -8.37715
635 36 1 -87.8697 -29.028 -7.12451
636 36 1 -91.1428 -29.4422 -3.85559
637 36 2 -89.8072 -32.3227 -5.43068
638 36 2 -88.9962 -30.5505 -7.61285
639 36 2 -91.1708 -29.9961 -1.45698
640 36 1 -88.7435 -26.7544 -3.83338
641 36 1 -91.5065 -27.3787 -6.78554
642 36 1 103.307 -25.8971 -7.77078
643 36 1 -90.471 -26.7893 -8.42106
644 36 1 -90.427 -24.3953 -7.04664
645 36 1 -88.692 -25.0703 -3.84814
646 36 2 -87.2109 -28.0742 -5.43842
647 36 2 -91.4589 -26.0063 -7.53816
648 36 2 -88.8114 -25.7778 -1.50933
649 37 1 -92.3813 -33.1961 -5.85667
650 37 1 -90.8134 -33.1502 -3.15561
651 37 1 -90.1009 -32.2542 -1.57305
652 37 1 -92.6731 -31.9996 -2.15559
653 37 1 -88.9973 -30.574 -3.23365
654 37 1 -92.4967 -30.4638 -5.5819
655 37 2 -91.2552 -34.2515 -4.46194
656 37 2 -89.3527 -31.9056 -2.65658
657 37 2 -92.2064 -31.4184 -6.9924
658 37 1 -89.7344 -28.8077 -5.80382
659 37 1 103.407 -28.7819 -3.07128
660 37 1 -92.5353 -27.8708 -1.31078
661 37 1 -90.1572 -27.8396 -2.38588
662 37 1 -91.4432 -26.1632 -3.09118
663 37 1 -89.9585 -26.1317 -5.57827
664 37 2 -88.7061 -29.9281 -4.46374
665 37 2 -91.7654 -27.5683 -2.51616
666 37 2 -89.5679 -27.031 -6.95659
667 38 1 -91.2314 -34.1117 -0.896504
668 38 1 -90.6905 -33.2959 0.548077
669 38 1 -90.7262 -31.8511 1.99408
670 38 1 -92.6511 -32.2687 2.72591
671 38 1 -89.3824 -31.4872 0.3885
672 38 1 -92.4645 -31.8115 0.0994242
673 38 2 -90.8991 -35.0628 0.188042
674 38 2 -89.5368 -32.1174 1.38134
675 38 2 -91.568 -32.6056 -1.05547
676 38 1 -88.6845 -29.9105 -1.07609
677 38 1 103.207 -28.8064 0.939734
678 38 1 103.243 -26.8467 2.98522
679 38 1 -90.2996 -28.0813 2.67949
680 38 1 -91.6872 -27.475 0.760546
681 38 1 -89.9047 -27.6445 -0.0494565
682 38 2 -88.513 -30.6759 -0.0612071
683 38 2 -92.2501 -27.853 1.99416
684 38 2 -89.0124 -28.4196 -1.23482
685 39 1 -89.3147 -32.6564 3.79112
686 39 1 -87.5912 -32.5636 6.80672
687 39 1 -89.0286 -30.224 9.20948
688 39 1 -91.6446 -30.9568 9.24203
689 39 1 -87.3143 -30.5442 6.40444
690 39 1 -91.0362 -30.0324 3.80633
691 39 2 -88.8212 -33.6585 5.36998
692 39 2 -87.6236 -30.9988 8.0532
693 39 2 -90.9981 -31.4829 3.15804
694 39 1 -87.2629 -28.3074 3.96279
695 39 1 -90.3713 -28.0681 6.46696
696 39 1 -91.8681 -25.9475 9.17097
697 39 1 -89.637 -26.7352 9.54158
698 39 1 -89.6989 -26.2626 6.43927
699 39 1 -89.0703 -26.7148 4.71675
700 39 2 -86.4587 -29.4135 5.03022
701 39 2 -90.4208 -26.6141 8.03835
702 39 2 -88.8501 -27.4988 3.5564
703 40 1 -89.7536 -30.3152 7.31039
704 40 1 -88.8092 -30.7274 4.71007
705 40 1 -90.489 -29.6619 0.998003
706 40 1 -91.3625 -29.9111 1.13514
707 40 1 -88.8953 -29.4513 5.08742
708 40 1 -91.8647 -28.7397 8.33163
709 40 2 -89.9196 -31.5175 6.26329
710 40 2 -88.6122 -30.1192 2.88679
711 40 2 -90.6015 -30.0334 8.60874
712 40 1 -88.6231 -27.6282 8.09453
713 40 1 -91.5778 -26.401 5.17623
714 40 1 103.516 -25.5259 0.972514
715 40 1 -88.8528 -25.8697 1.10335
716 40 1 -91.4552 -25.0259 5.12294
717 40 1 -89.8638 -24.7366 8.23766
718 40 2 -87.9242 -28.037 6.69101
719 40 2 -91.0816 -25.7746 3.0301
720 40 2 -88.6585 -26.1711 8.65766
721 41 1 -91.1652 -22.2469 -3.6426
722 41 1 -89.0901 -23.0529 -6.59393
723 41 1 -90.7062 -21.576 -7.63797
724 41 1 103.398 -22.232 -8.11749
725 41 1 -87.7523 -20.2478 -6.764
726 41 1 -91.1063 -20.6613 -3.54855
727 41 2 -89.7718 -23.4835 -5.25834
728 41 2 -88.9154 -21.7277 -7.33385
729 41 2 -91.1285 -21.3895 -1.23823
730 41 1 -88.42 -18.0056 -3.30714
731 41 1 -91.5323 -18.4958 -6.22382
732 41 1 103.209 -17.1336 -7.0449
733 41 1 -90.5642 -18.0641 -7.93682
734 41 1 -90.3408 -15.746 -6.49143
735 41 1 -88.4635 -16.541 -3.30107
736 41 2 -87.1119 -19.4093 -5.00309
737 41 2 -91.5255 -17.288 -6.98381
738 41 2 -88.554 -17.2592 -0.994598
739 42 1 -92.3251 -24.2237 -5.62798
740 42 1 -90.7426 -24.4497 -3.0142
741 42 1 -90.1854 -23.7052 -1.38083
742 42 1 -92.7361 -23.3547 -2.03774
743 42 1 -88.9824 -21.9473 -2.93558
744 42 1 -92.4509 -21.4869 -5.32539
745 42 2 -91.2443 -25.441 -4.41425
746 42 2 -89.3623 -23.273 -2.42043
747 42 2 -92.1934 -22.4418 -6.71959
748 42 1 -89.7426 -20.0159 -5.44542
749 42 1 103.349 -19.8146 -2.83787
750 42 1 -92.6477 -19.2349 -1.24117
751 42 1 -90.0788 -19.1919 -1.85427
752 42 1 -90.9439 -17.875 -2.77167
753 42 1 -89.7757 -17.5285 -5.04666
754 42 2 -88.7181 -21.2131 -4.14794
755 42 2 -91.7117 -18.9229 -2.10426
756 42 2 -89.5626 -18.3167 -6.55015
757 43 1 -91.2661 -25.5691 -0.83671
758 43 1 -90.7236 -24.7253 0.767112
759 43 1 -90.7594 -23.3222 2.44593
760 43 1 -92.6622 -23.8263 2.81643
761 43 1 -89.4088 -23.1255 0.640593
762 43 1 -92.4694 -23.1925 0.247399
763 43 2 -90.9299 -26.4533 0.196495
764 43 2 -89.6484 -23.6828 1.75127
765 43 2 -91.6368 -23.9933 -0.945315
766 43 1 -88.6479 -21.3427 -0.685728
767 43 1 103.399 -20.0481 0.971971
768 43 1 -92.1949 -19.2494 3.06053
769 43 1 -90.0039 -19.5582 2.80545
770 43 1 -91.6454 -18.6658 0.791572
771 43 1 -89.9521 -19.0951 0.391263
772 43 2 -88.5512 -22.2296 0.270773
773 43 2 -91.7804 -19.2168 1.88714
774 43 2 -88.9802 -19.8491 -0.719797
775 44 1 -89.4866 -24.2707 4.11001
776 44 1 -88.0158 -24.3666 6.8145
777 44 1 -89.5063 -22.1384 9.52562
778 44 1 -91.1659 -22.4746 7.6535
779 44 1 -87.8812 -21.9008 7.05085
780 44 1 -91.1616 -21.7775 4.4156
781 44 2 -88.9437 -25.3202 5.38201
782 44 2 -88.1332 -22.8558 8.42756
783 44 2 -91.1079 -23.1446 3.63841
784 44 1 -86.8707 -20.4314 4.38428
785 44 1 -89.9895 -20.1938 7.37994
786 44 1 -91.4278 -17.958 9.88839
787 44 1 -88.9705 -18.8308 9.96852
788 44 1 -89.6175 -17.9104 7.27839
789 44 1 -88.2477 -17.4896 4.4435
790 44 2 -86.6877 -21.5424 5.83
791 44 2 -90.0055 -18.6747 8.7071
792 44 2 -88.2837 -19.0004 3.61925
793 45 1 -91.29 -23.4861 8.47543
794 45 1 -89.2084 -22.493 5.37492
795 45 1 -90.5286 -21.2465 1.28982
796 45 1 -91.3089 -21.5076 1.34059
797 45 1 -88.9381 -20.5175 5.28126
798 45 1 -92.1064 -20.3042 8.72028
799 45 2 -90.5037 -23.7711 6.68875
800 45 2 -88.7828 -21.6606 3.27079
801 45 2 -91.044 -22.0281 8.89221
802 45 1 -87.3393 -18.1908 7.83624
803 45 1 -90.9118 -18.2719 5.38681
804 45 1 -92.4238 -16.8245 2.00524
805 45 1 -88.7005 -17.4287 1.59739
806 45 1 -91.0399 -16.7573 5.79876
807 45 1 -89.1506 -16.3315 9.0806
808 45 2 -87.5538 -19.2228 6.63681
809 45 2 -90.7035 -17.3554 3.59065
810 45 2 -88.007 -17.8585 9.22778
811 46 1 -90.9793 -13.4126 -2.64172
812 46 1 -89.0837 -14.4471 -6.08554
813 46 1 -90.8104 -13.071 -6.92221
814 46 1 103.417 -14.0476 -7.4166
815 46 1 -87.8467 -11.7833 -6.32696
816 46 1 -91.0458 -12.6271 -2.64225
817 46 2 -89.6818 -14.894 -4.70505
818 46 2 -89.0504 -13.2199 -6.84658
819 46 2 -90.9614 -12.9333 -0.088199
820 46 1 -88.3989 -9.25617 -2.55166
821 46 1 -91.6 -10.5161 -5.73185
822 46 1 103.318 -9.16189 -6.84381
823 46 1 -90.537 -9.93289 -7.35224
824 46 1 -90.2624 -7.85374 -6.00708
825 46 1 -88.4676 -8.65806 -2.55932
826 46 2 -87.1925 -10.8648 -4.56229
827 46 2 -91.4964 -9.27197 -6.48377
828 46 2 -88.4396 -8.76562 0.0795112
829 47 1 -92.2019 -15.8535 -4.86745
830 47 1 -90.576 -15.7367 -2.51685
831 47 1 -89.9518 -15.075 -0.894191
832 47 1 -92.6371 -14.8623 -1.54473
833 47 1 -88.567 -13.6019 -2.45576
834 47 1 -92.4021 -13.5473 -4.42004
835 47 2 -91.0073 -16.849 -3.77443
836 47 2 -89.1448 -14.7513 -1.91747
837 47 2 -92.1891 -14.0467 -5.97809
838 47 1 -89.727 -11.7972 -4.74561
839 47 1 103.379 -11.6757 -2.10537
840 47 1 -92.4216 -10.9813 -0.494471
841 47 1 -90.0935 -10.6898 -1.51836
842 47 1 -91.2749 -9.33156 -2.07961
843 47 1 -89.8847 -9.52104 -4.30581
844 47 2 -88.5892 -12.7439 -3.55498
845 47 2 -91.6653 -10.6617 -1.55831
846 47 2 -89.6656 -10.0443 -5.94067
847 48 1 -91.0494 -16.9381 -0.588398
848 48 1 -90.3502 -16.0346 1.26358
849 48 1 -90.1795 -15.0809 3.0331
850 48 1 -92.3818 -15.4199 3.78546
851 48 1 -89.0712 -14.5467 1.13635
852 48 1 -92.39 -14.9057 0.596404